# vtk DataFile Version 4.0
 
ASCII
DATASET UNSTRUCTURED_GRID
POINTS 18 float
-26.472720964692513 -1499.766519447018 0.0
1051.294831577382 -1070.0173493589223 0.0
1500.0 -2.591351612457604e-13 0.0
-1070.0098370310495 -1051.302050486249 0.0
-9.35798128140624 1.7053025658242404e-13 0.0
1051.294831577382 1070.0173493589223 0.0
-1500.0 1.0924334353790144e-13 0.0
-1070.0098370310493 1051.3020504862498 0.0
-26.47272096469281 1499.766519447017 0.0
-26.472720964692513 -1499.766519447018 162.5
1051.294831577382 -1070.0173493589223 162.5
1500.0 -2.591351612457604e-13 162.5
-1070.0098370310495 -1051.302050486249 162.5
-9.35798128140624 1.7053025658242404e-13 162.5
1051.294831577382 1070.0173493589223 162.5
-1500.0 1.0924334353790144e-13 162.5
-1070.0098370310493 1051.3020504862498 162.5
-26.47272096469281 1499.766519447017 162.5

CELLS 4 36
8 0 1 4 3 9 10 13 12
8 1 2 5 4 10 11 14 13
8 3 4 7 6 12 13 16 15
8 4 5 8 7 13 14 17 16

CELL_TYPES 4
12
12
12
12

POINT_DATA 18

VECTORS wake float
0.0 0.0 0.0
0.0 0.0 0.0
0.0 0.0 0.0
0.0 0.0 0.0
0.0 0.0 0.0
0.0 0.0 0.0
0.0 0.0 0.0
0.0 0.0 0.0
0.0 0.0 0.0
-8.511273475805686 -9.452726839363551 0.0
-8.511273475805686 -9.452726839363551 0.0
-8.511273475805686 -9.452726839363551 0.0
-8.219352144239986 -9.128515355181083 0.0
-7.3499569518226435 -8.16295417415005 0.0
-8.511273475805686 -9.452726839363551 0.0
-8.511273475805686 -9.452726839363551 0.0
-8.511273475805686 -9.452726839363551 0.0
-8.511273475805686 -9.452726839363551 0.0